<?xml version="1.0" encoding="UTF-8"?>

<!-- generated on 01/14/20 19:17:19 by Eclipse SUMO GUI Version 1.4.0
<configuration xmlns:xsi="http://www.w3.org/2001/XMLSchema-instance" xsi:noNamespaceSchemaLocation="http://sumo.dlr.de/xsd/sumoConfiguration.xsd">

    <input>
        <net-file value="G:\Facultate\doc\tutorial\traci_tls\data\cross.net.xml"/>
        <route-files value="G:\Facultate\doc\tutorial\traci_tls\data\cross.rou.xml"/>
        <additional-files value="G:\Facultate\doc\tutorial\traci_tls\data\cross.det.xml"/>
    </input>

    <time>
        <begin value="0"/>
    </time>

    <processing>
        <time-to-teleport value="-1"/>
    </processing>

    <report>
        <verbose value="false"/>
        <no-step-log value="true"/>
    </report>

</configuration>
-->

<detector xmlns:xsi="http://www.w3.org/2001/XMLSchema-instance" xsi:noNamespaceSchemaLocation="http://sumo.dlr.de/xsd/det_e1_file.xsd">
</detector>
